% Model:              permanent_magnet.mph
% Version:            COMSOL 6.0.0.405
% Date:               Jul 27 2025, 16:26
% Dimension:          1
% Nodes:              225
% Expressions:        1
% Description:        Line graph
% x-coordinate (mm)       Magnetic flux density, x component
-4.762499999999999        -0.15274945110104352
-4.730072471706091        -0.1543003434930796
-4.660043027326475        -0.1576496006896945
-4.651974238694444        -0.15803550191500587
-4.644672798231406        -0.15842147826426495
-4.573990988340463        -0.16218333329075524
-4.49631827730148         -0.16631726080186388
-4.496008987227866        -0.16624109961970915
-4.4956686836112745       -0.16634869352428489
-4.418812210206513        -0.17066100742411483
-4.34926688135867         -0.1745631027841179
-4.341605148791094        -0.17498989688812433
-4.3341666799223875       -0.17545374899950725
-4.266433262712671        -0.1796775064875612
-4.191382676657872        -0.1844969777763984
-4.191264828825278        -0.18450440460997794
-4.191107380639994        -0.18426521062293216
-4.115739711581011        -0.1893738628573116
-4.047405150479224        -0.1938999903437718
-4.040213837822168        -0.19437630565707822
-4.0333580104727975       -0.19487478728858107
-3.965544434126401        -0.1999068705972471
-3.8960721266852967       -0.20506203948117596
-3.8908612199152826       -0.2056021183524139
-3.885399460425888        -0.20588150927357782
-3.8208295771288054       -0.21096973709007064
-3.7647313515491834       -0.21539038240139444
-3.750963104158468        -0.2164753460993388
-3.734598939370816        -0.21786632847981335
-3.677444625977487        -0.2230003907895133
-3.6259919929767244       -0.22762228208940757
-3.604267791769993        -0.229196914302289
-3.5829902088970753       -0.23143641898525938
-3.530086460242731        -0.23648860041201708
-3.4697067408675886       -0.2422547191567012
-3.4558122202452473       -0.24347713764543294
-3.4422380824755883       -0.24494493810633922
-3.3717370467293613       -0.25256836542957917
-3.2886062295677787       -0.26155747794750034
-3.2876965434044383       -0.261112236299858
-3.287095629075666        -0.2617655803200649
-3.2102274619553457       -0.2706525952008841
-3.1646623650743773       -0.27592054563078566
-3.1328043543517734       -0.27960376881629595
-3.1006835418932344       -0.2839237129768486
-3.0570942858408676       -0.2894936060658667
-2.987956916822231        -0.29914650739445897
-2.981470727636227        -0.2979014331409871
-2.9766182149679925       -0.2987041378873064
-2.9088938294610784       -0.30874618966893264
-2.8576829946608537       -0.31537241270762195
-2.8362674580606857       -0.3181433912038662
-2.8139989187616905       -0.3208917172831111
-2.781476616057647        -0.3252142756267658
-2.755607268792506        -0.3286525857576209
-2.7193737332565493       -0.33227090863345726
-2.6790060844417414       -0.3368968652397537
-2.6518163987067513       -0.3400126847150423
-2.6152463655316143       -0.34294124636420553
-2.5792385240513447       -0.3465991085167212
-2.5307866647163126       -0.3487449204175658
-2.498411038057776        -0.3501787561038496
-2.447771768480176        -0.3524214429439522
-2.4159793508944163       -0.3523219686036749
-2.358753197330909        -0.3482389242288364
-2.3274407878495684       -0.34600480661941835
-2.269654505911978        -0.3418817974930649
-2.2384573124829448       -0.3361167171038325
-2.176538564386005        -0.32821731779046304
-2.1448464327084644       -0.3228193606737601
-2.0827915493037916       -0.3122498728618064
-2.0509609608389785       -0.3074254174284716
-1.9877558962300046       -0.29446935424089316
-1.955593912844101        -0.2878766438060031
-1.8927517708058363       -0.2749949741466574
-1.859905523624511        -0.26960948272683494
-1.796127713541436        -0.25683949105389525
-1.7624798838487787       -0.2501023123325226
-1.6990333285428219       -0.23739864656102266
-1.6649702796535486       -0.23188804186455203
-1.6012950760609652       -0.2202027468585727
-1.5667055078778014       -0.21385507483641414
-1.5032601268059782       -0.20221195549383877
-1.4683916322586361       -0.19683932318723202
-1.4048185172612513       -0.18626141700077434
-1.3696273140804296       -0.1804059662201942
-1.3061981421022681       -0.17025552170313887
-1.2708595981827044       -0.16472905192113624
-1.2073994414532403       -0.155084419353591
-1.171870806126859        -0.14968480089991973
-1.1084941309887744       -0.14005285580931237
-1.0728935654630702       -0.13519472745074904
-1.0095004467945405       -0.1262782312190529
-0.9737985053607898       -0.12125661005662049
-0.9104444963766463       -0.11234561475878739
-0.8747159759981358       -0.10772614562086585
-0.8113424694072514       -0.09935552073109641
-0.7755747593961885       -0.09463117928662544
-0.7122088961951023       -0.0862615639661863
-0.6764368944134442       -0.08183823667796959
-0.613049998733792        -0.07386051087400718
-0.5772686070690181       -0.06935714896418363
-0.5138779935398123       -0.061378955240412036
-0.47809537495703114      -0.05721148366118955
-0.4146917502838819       -0.04938969409704941
-0.3789037406540484       -0.045036464010759156
-0.3154992292115112       -0.03732398070495077
-0.27970584891273165      -0.0331421835514006
-0.2162942593101746       -0.025583717331268473
-0.18049694846286687      -0.021316788107341552
-0.11708492569276889      -0.013758270254977811
-0.08128521960459531      -0.009623217875504818
-0.0178668055343641       -0.0021146568582940946
0.017931847213474406      0.0021238024666804262
0.08135401670907125       0.00963280811564131
0.11714655125907684       0.013767047966005122
0.18056825229122858       0.021326730582126866
0.2163615073336239        0.02559318265633603
0.2797856641895977        0.033153157999527255
0.31556815397459304       0.03733374433250733
0.3789889851227796        0.04504826647115598
0.414779169852773         0.04940179144784375
0.47819470137905673       0.05722527224681497
0.5139849778253497        0.061393568950305046
0.5773965889364256        0.06937461621800965
0.6132103180989806        0.07388216712660345
0.6766034406426955        0.08186088740516914
0.7124443972507744        0.08629299646426677
0.7758274248809905        0.09466560757412766
0.8117040970766574        0.09940475361118067
0.8750620729977219        0.10777405550363534
0.9109688166224787        0.11241727844709057
0.9743323339979002        0.12133174779163668
1.010287845431209         0.1263902470308844
1.0735914383343232        0.13529628573752284
1.1096433959462761        0.14021867782017217
1.1728685381948105        0.1498335544629472
1.2090149908603647        0.1553304765906559
1.2721189446906955        0.16492692367123313
1.3084271469913376        0.17060565241151726
1.3713791256482262        0.18068712116247868
1.407723197565571         0.18674305373177194
1.4705759356888823        0.19721606690255494
1.5070518868610296        0.20284892123179593
1.5695145188679314        0.21434367500341456
1.6060528932832618        0.22106768908391283
1.6683033648640082        0.2325233998024203
1.7050159567535834        0.23848106665155488
1.7664594745820894        0.2508396907159326
1.8032186101027987        0.25823334838540307
1.864361422430229         0.2705314891575908
1.9012503536020635        0.2765740031064525
1.9608531756584646        0.28885341496160255
1.9978796425928627        0.2964816315684968
2.05703641575768          0.3086691481432093
2.094242722718421         0.3141997634236429
2.1512393232106257        0.3238359907609729
2.188872092468954         0.3301984389907805
2.2454083344413434        0.3372871992452142
2.283031474211598         0.34330783560951705
2.336023270192362         0.34670299367519286
2.374457929373102         0.3491654832116189
2.4264520460839654        0.35249672046167424
2.465651111645757         0.3525230130150549
2.513398554697215         0.3497737109294317
2.5544010743011794        0.34741278214542304
2.5997075016640494        0.3448040339637366
2.6435899189453935        0.3407300008770622
2.6842137360268086        0.33681524900766163
2.727246847914965         0.3313328633110567
2.7670615961832774        0.32584589181155105
2.8141318757415243        0.32184806011066086
2.848737612825383         0.31687375990273114
2.898636309813106         0.3097012180146583
2.9267525216643397        0.3056597355830358
2.9890486772906075        0.29899850756331564
3.0062942048266414        0.2965162064154765
3.0692044133300933        0.2874609842744119
3.091426480698515         0.2842623657792296
3.0954957861970156        0.284118811789116
3.16144111528407          0.27684203400720586
3.167954096398841         0.2757796919295589
3.182734507789503         0.27400128926659373
3.237239286075676         0.2674431874461366
3.279384231760909         0.26237224038952234
3.3007076321226267        0.25975262019792783
3.325197509137177         0.2577538538620974
3.373759939092294         0.25241098439468673
3.4415144399577904        0.2449565910645307
3.4469572171179528        0.24435777325550087
3.4515517744234026        0.24401510041802787
3.5209147466286357        0.23738662088183732
3.5901985098650147        0.23076571073047447
3.5948578296756777        0.23005965100881853
3.5998418658105753        0.22990246697395464
3.6699481213305316        0.22364156864583662
3.742077601223495         0.2171999845572221
3.745002026645485         0.21696846235110387
3.7479596935131156        0.21673468769063906
3.8205052594991984        0.21100066969068162
3.890280074330177         0.20548565249085354
3.896006632696912         0.20522109506791836
3.9020833616350052        0.2046061036073065
3.971924332657431         0.19943954700815442
4.036909864434478         0.19463217644704936
4.047829374440488         0.1938437752255229
4.0587099752982905        0.19312646292182897
4.124321654926346         0.1888009605274219
4.1965150502593955        0.1840415532672573
4.200836198067407         0.1836443435263473
4.204257759907428         0.18355386212762714
4.276577986113001         0.17905710614671885
4.346646160558288         0.17470037914184505
4.352379228075249         0.17434390617434536
4.358804658563776         0.1739878687400173
4.4282419648442355        0.17012736360063382
4.491161392273513         0.1665638058022023
4.504140828131152         0.16593349590843662
4.517798320069297         0.16521322962120968
4.580424508351778         0.16184090096365217
4.638735496052954         0.15875492631413116
4.656668647487033         0.1577973671914615
4.675563633318002         0.15689602402104952
4.733463144367366         0.15413405694040475
4.762499999999999         0.15274891848363384
